LAMMPS init.data

8 atoms
7 bonds
6 angles
1 atom types
1 bond types
1 angle types
-10.0 10.0 xlo xhi
-10.0 10.0 ylo yhi
-10.0 10.0 zlo zhi

Atoms # molecular

1 0 1 0.00000000 0.00000000 0.00000000
2 0 1 0.00000000 0.00000000 1.00000000
3 0 1 0.00000000 0.00000000 2.00000000
4 0 1 0.00000000 0.00000000 3.00000000
5 0 1 0.00000000 0.00000000 4.00000000
6 0 1 0.00000000 0.00000000 5.00000000
7 0 1 0.00000000 0.00000000 6.00000000
8 0 1 0.00000000 0.00000000 7.00000000

Bonds

1 1 1 2
2 1 2 3
3 1 3 4
4 1 4 5
5 1 5 6
6 1 6 7
7 1 7 8

Angles

1 1 1 2 3
2 1 2 3 4
3 1 3 4 5
4 1 4 5 6
5 1 5 6 7
6 1 6 7 8
