ITEM: TIMESTEP
0
ITEM: NUMBER OF ATOMS
8
ITEM: BOX BOUNDS pp pp pp
-1.0000000000000000e+01 1.0000000000000000e+01
-1.0000000000000000e+01 1.0000000000000000e+01
-1.0000000000000000e+01 1.0000000000000000e+01
ITEM: ATOMS id type x y z vx vy vz ix iy iz
1 1 0 0 0 -0.731729 1.67533 -1.22346 0 0 0
2 1 0 0 1 -0.213871 0.56056 0.849808 0 0 0
3 1 0 0 2 -1.70901 0.810939 0.152804 0 0 0
4 1 0 0 3 1.56259 -0.476687 -0.739362 0 0 0
5 1 0 0 4 -0.313506 -0.719112 1.81174 0 0 0
6 1 0 0 5 0.555443 0.14648 0.516246 0 0 0
7 1 0 0 6 -0.964769 0.690772 0.153791 0 0 0
8 1 0 0 7 1.81485 -2.68828 -1.52157 0 0 0
ITEM: TIMESTEP
1
ITEM: NUMBER OF ATOMS
8
ITEM: BOX BOUNDS pp pp pp
-1.0000000000000000e+01 1.0000000000000000e+01
-1.0000000000000000e+01 1.0000000000000000e+01
-1.0000000000000000e+01 1.0000000000000000e+01
ITEM: ATOMS id type x y z vx vy vz ix iy iz
1 1 -0.00365865 0.00837663 -0.00611502 -0.731166 1.67485 -1.1966 0 0 0
2 1 -0.00106936 0.0028028 1.00425 -0.216075 0.561754 0.81611 0 0 0
3 1 -0.00854504 0.0040547 2.00076 -1.70505 0.80964 0.150654 0 0 0
4 1 0.00781294 -0.00238343 2.9963 1.55803 -0.476155 -0.696597 0 0 0
5 1 -0.00156753 -0.00359556 4.00906 -0.310051 -0.718766 1.76366 0 0 0
6 1 0.00277722 0.0007324 5.00258 0.552577 0.147081 0.527955 0 0 0
7 1 -0.00482384 0.00345386 6.00077 -0.962313 0.689225 0.136974 0 0 0
8 1 0.00907426 -0.0134414 6.99239 1.81404 -2.68763 -1.50216 0 0 0
ITEM: TIMESTEP
2
ITEM: NUMBER OF ATOMS
8
ITEM: BOX BOUNDS pp pp pp
-1.0000000000000000e+01 1.0000000000000000e+01
-1.0000000000000000e+01 1.0000000000000000e+01
-1.0000000000000000e+01 1.0000000000000000e+01
ITEM: ATOMS id type x y z vx vy vz ix iy iz
1 1 -0.00731166 0.0167485 -0.011966 -0.729367 1.67316 -1.11928 0 0 0
2 1 -0.00216075 0.00561754 1.00816 -0.222684 0.565565 0.715547 0 0 0
3 1 -0.0170505 0.0080964 2.00151 -1.69357 0.805869 0.145103 0 0 0
4 1 0.0155803 -0.00476155 2.99303 1.54419 -0.474734 -0.572215 0 0 0
5 1 -0.00310051 -0.00718766 4.01764 -0.299354 -0.717777 1.62308 0 0 0
6 1 0.00552577 0.00147081 5.00528 0.544172 0.148988 0.560935 0 0 0
7 1 -0.00962313 0.00689225 6.00137 -0.955504 0.685203 0.0909961 0 0 0
8 1 0.0181404 -0.0268763 6.98498 1.81212 -2.68627 -1.44416 0 0 0
ITEM: TIMESTEP
3
ITEM: NUMBER OF ATOMS
8
ITEM: BOX BOUNDS pp pp pp
-1.0000000000000000e+01 1.0000000000000000e+01
-1.0000000000000000e+01 1.0000000000000000e+01
-1.0000000000000000e+01 1.0000000000000000e+01
ITEM: ATOMS id type x y z vx vy vz ix iy iz
1 1 -0.0109523 0.0251082 -0.0173078 -0.726149 1.66981 -0.995777 0 0 0
2 1 -0.00329619 0.00845845 1.01141 -0.233687 0.5724 0.555008 0 0 0
3 1 -0.0254808 0.0121134 2.00222 -1.67523 0.799838 0.13817 0 0 0
4 1 0.0232549 -0.00713078 2.99058 1.52074 -0.472716 -0.377133 0 0 0
5 1 -0.00456107 -0.0107733 4.02529 -0.280863 -0.716229 1.40075 0 0 0
6 1 0.00821893 0.00222228 5.00819 0.530619 0.152363 0.608969 0 0 0
7 1 -0.0143789 0.0103059 6.00168 -0.945381 0.679825 0.0225695 0 0 0
8 1 0.0271954 -0.0403041 6.97795 1.80995 -2.68529 -1.35255 0 0 0
ITEM: TIMESTEP
4
ITEM: NUMBER OF ATOMS
8
ITEM: BOX BOUNDS pp pp pp
-1.0000000000000000e+01 1.0000000000000000e+01
-1.0000000000000000e+01 1.0000000000000000e+01
-1.0000000000000000e+01 1.0000000000000000e+01
ITEM: ATOMS id type x y z vx vy vz ix iy iz
1 1 -0.0145731 0.0334466 -0.0219238 -0.721397 1.66449 -0.833048 0 0 0
2 1 -0.00449762 0.0113415 1.01371 -0.249064 0.582537 0.345497 0 0 0
3 1 -0.0338028 0.0160948 2.00289 -1.65035 0.791636 0.132179 0 0 0
4 1 0.0307877 -0.0094887 2.98926 1.48742 -0.47024 -0.12787 0 0 0
5 1 -0.00590914 -0.01435 4.03164 -0.254291 -0.714149 1.11374 0 0 0
6 1 0.010832 0.00299444 5.01137 0.512316 0.157252 0.662481 0 0 0
7 1 -0.0190769 0.0136905 6.0016 -0.9328 0.673914 -0.059201 0 0 0
8 1 0.03624 -0.0537292 6.97145 1.80817 -2.68544 -1.23377 0 0 0
ITEM: TIMESTEP
5
ITEM: NUMBER OF ATOMS
8
ITEM: BOX BOUNDS pp pp pp
-1.0000000000000000e+01 1.0000000000000000e+01
-1.0000000000000000e+01 1.0000000000000000e+01
-1.0000000000000000e+01 1.0000000000000000e+01
ITEM: ATOMS id type x y z vx vy vz ix iy iz
1 1 -0.0181663 0.0417532 -0.0256383 -0.715087 1.65706 -0.640262 0 0 0
2 1 -0.00578684 0.0142838 1.01486 -0.268795 0.596092 0.101454 0 0 0
3 1 -0.0419843 0.0200297 2.00354 -1.6188 0.7812 0.129465 0 0 0
4 1 0.038129 -0.0118332 2.9893 1.44402 -0.467259 0.154818 0 0 0
5 1 -0.00710398 -0.0179148 4.03643 -0.219663 -0.711491 0.78385 0 0 0
6 1 0.0133421 0.0037948 5.01482 0.489646 0.163556 0.709667 0 0 0
7 1 -0.0237069 0.017045 6.00108 -0.918381 0.667927 -0.143713 0 0 0
8 1 0.0452771 -0.0671585 6.96561 1.80706 -2.68709 -1.09528 0 0 0
ITEM: TIMESTEP
6
ITEM: NUMBER OF ATOMS
8
ITEM: BOX BOUNDS pp pp pp
-1.0000000000000000e+01 1.0000000000000000e+01
-1.0000000000000000e+01 1.0000000000000000e+01
-1.0000000000000000e+01 1.0000000000000000e+01
ITEM: ATOMS id type x y z vx vy vz ix iy iz
1 1 -0.021724 0.0500172 -0.0283264 -0.707292 1.64757 -0.428209 0 0 0
2 1 -0.00718557 0.0173025 1.01473 -0.292867 0.613 -0.160142 0 0 0
3 1 -0.0499908 0.0239068 2.00418 -1.57999 0.768311 0.132059 0 0 0
4 1 0.0452279 -0.0141613 2.99081 1.39041 -0.463524 0.447627 0 0 0
5 1 -0.00810578 -0.0214649 4.03948 -0.177334 -0.708128 0.435721 0 0 0
6 1 0.0157284 0.00463 5.01847 0.462962 0.17102 0.73791 0 0 0
7 1 -0.0282607 0.0203698 6.00016 -0.902468 0.661917 -0.21992 0 0 0
8 1 0.0543106 -0.0806001 6.9605 1.80658 -2.69016 -0.945047 0 0 0
ITEM: TIMESTEP
7
ITEM: NUMBER OF ATOMS
8
ITEM: BOX BOUNDS pp pp pp
-1.0000000000000000e+01 1.0000000000000000e+01
-1.0000000000000000e+01 1.0000000000000000e+01
-1.0000000000000000e+01 1.0000000000000000e+01
ITEM: ATOMS id type x y z vx vy vz ix iy iz
1 1 -0.0252392 0.0582288 -0.0299204 -0.698178 1.63625 -0.208613 0 0 0
2 1 -0.00871551 0.0204138 1.01326 -0.321282 0.633006 -0.420858 0 0 0
3 1 -0.0577842 0.0277129 2.00486 -1.53294 0.752611 0.141393 0 0 0
4 1 0.0520332 -0.0164684 2.99378 1.32657 -0.458605 0.72658 0 0 0
5 1 -0.00887732 -0.0249961 4.04078 -0.127983 -0.703863 0.0946885 0 0 0
6 1 0.0179717 0.00550501 5.02219 0.432586 0.179257 0.735298 0 0 0
7 1 -0.0327316 0.0236642 5.99889 -0.885112 0.655534 -0.277439 0 0 0
8 1 0.0633429 -0.0940602 6.95616 1.80633 -2.69419 -0.791049 0 0 0
ITEM: TIMESTEP
8
ITEM: NUMBER OF ATOMS
8
ITEM: BOX BOUNDS pp pp pp
-1.0000000000000000e+01 1.0000000000000000e+01
-1.0000000000000000e+01 1.0000000000000000e+01
-1.0000000000000000e+01 1.0000000000000000e+01
ITEM: ATOMS id type x y z vx vy vz ix iy iz
1 1 -0.0287058 0.0663797 -0.0304125 -0.687993 1.62352 0.00662956 0 0 0
2 1 -0.0103984 0.0236325 1.01052 -0.354038 0.655677 -0.661986 0 0 0
3 1 -0.0653202 0.0314329 2.0056 -1.47637 0.733652 0.158067 0 0 0
4 1 0.0584937 -0.0187473 2.99808 1.2526 -0.451937 0.96892 0 0 0
5 1 -0.00938561 -0.0285035 4.04043 -0.0725872 -0.698455 -0.215374 0 0 0
6 1 0.0200543 0.00642257 5.02582 0.398797 0.187793 0.692111 0 0 0
7 1 -0.0371119 0.0269251 5.99738 -0.866074 0.648073 -0.307595 0 0 0
8 1 0.0723739 -0.107542 6.95259 1.80566 -2.69832 -0.640773 0 0 0
ITEM: TIMESTEP
9
ITEM: NUMBER OF ATOMS
8
ITEM: BOX BOUNDS pp pp pp
-1.0000000000000000e+01 1.0000000000000000e+01
-1.0000000000000000e+01 1.0000000000000000e+01
-1.0000000000000000e+01 1.0000000000000000e+01
ITEM: ATOMS id type x y z vx vy vz ix iy iz
1 1 -0.0321191 0.074464 -0.0298541 -0.677045 1.60995 0.206211 0 0 0
2 1 -0.0122559 0.0269706 1.00664 -0.391115 0.680427 -0.865771 0 0 0
3 1 -0.0725479 0.0350494 2.00644 -1.40893 0.710962 0.181709 0 0 0
4 1 0.0645592 -0.0209878 3.00347 1.16877 -0.442887 1.1549 0 0 0
5 1 -0.00960319 -0.0319807 4.03863 -0.012361 -0.691654 -0.474051 0 0 0
6 1 0.0219597 0.00738293 5.02912 0.361831 0.196137 0.602114 0 0 0
7 1 -0.0413923 0.0301449 5.99581 -0.844847 0.638549 -0.304323 0 0 0
8 1 0.0813995 -0.121043 6.94975 1.80369 -2.70149 -0.500786 0 0 0
ITEM: TIMESTEP
10
ITEM: NUMBER OF ATOMS
8
ITEM: BOX BOUNDS pp pp pp
-1.0000000000000000e+01 1.0000000000000000e+01
-1.0000000000000000e+01 1.0000000000000000e+01
-1.0000000000000000e+01 1.0000000000000000e+01
ITEM: ATOMS id type x y z vx vy vz ix iy iz
1 1 -0.0354762 0.0824792 -0.0283504 -0.665675 1.5962 0.380141 0 0 0
2 1 -0.0143095 0.0304368 1.00186 -0.432447 0.70655 -1.01659 0 0 0
3 1 -0.0794095 0.0385425 2.00741 -1.3294 0.684123 0.210947 0 0 0
4 1 0.0701814 -0.0231762 3.00963 1.07555 -0.430834 1.26919 0 0 0
5 1 -0.00950922 -0.03542 4.03569 0.0513251 -0.683247 -0.666043 0 0 0
6 1 0.0236726 0.00838394 5.03184 0.32187 0.203861 0.463517 0 0 0
7 1 -0.0455603 0.0333106 5.99434 -0.820691 0.625801 -0.264745 0 0 0
8 1 0.0904108 -0.134557 6.94758 1.79947 -2.70245 -0.376415 0 0 0
ITEM: TIMESTEP
11
ITEM: NUMBER OF ATOMS
8
ITEM: BOX BOUNDS pp pp pp
-1.0000000000000000e+01 1.0000000000000000e+01
-1.0000000000000000e+01 1.0000000000000000e+01
-1.0000000000000000e+01 1.0000000000000000e+01
ITEM: ATOMS id type x y z vx vy vz ix iy iz
1 1 -0.0387759 0.0904261 -0.0260527 -0.654228 1.58295 0.520384 0 0 0
2 1 -0.0165804 0.0340361 0.996475 -0.477889 0.733274 -1.10201 0 0 0
3 1 -0.0858419 0.0418906 2.00855 -1.23694 0.65285 0.243499 0 0 0
4 1 0.0753147 -0.0252961 3.01616 0.973637 -0.415257 1.30199 0 0 0
5 1 -0.00908994 -0.0388131 4.03197 0.117052 -0.673095 -0.78234 0 0 0
6 1 0.0251784 0.00942154 5.03375 0.279027 0.210675 0.279495 0 0 0
7 1 -0.0495992 0.0364029 5.99316 -0.792682 0.608594 -0.189473 0 0 0
8 1 0.0993941 -0.148068 6.94599 1.79202 -2.69999 -0.271538 0 0 0
ITEM: TIMESTEP
12
ITEM: NUMBER OF ATOMS
8
ITEM: BOX BOUNDS pp pp pp
-1.0000000000000000e+01 1.0000000000000000e+01
-1.0000000000000000e+01 1.0000000000000000e+01
-1.0000000000000000e+01 1.0000000000000000e+01
ITEM: ATOMS id type x y z vx vy vz ix iy iz
1 1 -0.0420185 0.0983087 -0.0231466 -0.643016 1.57087 0.621368 0 0 0
2 1 -0.0190884 0.0377695 0.990839 -0.52719 0.759812 -1.11368 0 0 0
3 1 -0.0917789 0.045071 2.00985 -1.13126 0.617051 0.27637 0 0 0
4 1 0.0799177 -0.0273288 3.02265 0.863914 -0.395808 1.24968 0 0 0
5 1 -0.00833869 -0.042151 4.02787 0.183476 -0.66117 -0.820817 0 0 0
6 1 0.0264629 0.0104907 5.03463 0.233333 0.216496 0.0582263 0 0 0
7 1 -0.0534872 0.0393965 5.99245 -0.759768 0.585733 -0.0826366 0 0 0
8 1 0.108331 -0.161557 6.94487 1.78051 -2.69298 -0.18851 0 0 0
ITEM: TIMESTEP
13
ITEM: NUMBER OF ATOMS
8
ITEM: BOX BOUNDS pp pp pp
-1.0000000000000000e+01 1.0000000000000000e+01
-1.0000000000000000e+01 1.0000000000000000e+01
-1.0000000000000000e+01 1.0000000000000000e+01
ITEM: ATOMS id type x y z vx vy vz ix iy iz
1 1 -0.045206 0.106135 -0.019839 -0.632294 1.56051 0.680332 0 0 0
2 1 -0.0218523 0.0416342 0.985338 -0.579968 0.785436 -1.04791 0 0 0
3 1 -0.0971544 0.0480611 2.01131 -1.01276 0.57688 0.306146 0 0 0
4 1 0.0839538 -0.0292542 3.02866 0.747439 -0.372378 1.11494 0 0 0
5 1 -0.00725518 -0.0454248 4.02376 0.249443 -0.647566 -0.786212 0 0 0
6 1 0.0275117 0.0115865 5.03433 0.184728 0.22148 -0.187588 0 0 0
7 1 -0.0571969 0.0422603 5.99234 -0.720837 0.556147 0.0485116 0 0 0
8 1 0.117199 -0.174998 6.9441 1.76425 -2.68051 -0.128214 0 0 0
ITEM: TIMESTEP
14
ITEM: NUMBER OF ATOMS
8
ITEM: BOX BOUNDS pp pp pp
-1.0000000000000000e+01 1.0000000000000000e+01
-1.0000000000000000e+01 1.0000000000000000e+01
-1.0000000000000000e+01 1.0000000000000000e+01
ITEM: ATOMS id type x y z vx vy vz ix iy iz
1 1 -0.0483415 0.113914 -0.0163432 -0.622235 1.55227 0.697484 0 0 0
2 1 -0.0248881 0.0456239 0.98036 -0.635696 0.809534 -0.906059 0 0 0
3 1 -0.101906 0.0508398 2.01291 -0.882634 0.532755 0.329335 0 0 0
4 1 0.0873921 -0.0310526 3.03379 0.625401 -0.345138 0.906358 0 0 0
5 1 -0.00584426 -0.0486266 4.02 0.314091 -0.6325 -0.689494 0 0 0
6 1 0.0283101 0.0127055 5.03276 0.133065 0.226031 -0.44167 0 0 0
7 1 -0.0606955 0.044958 5.99293 -0.674801 0.518974 0.194263 0 0 0
8 1 0.125974 -0.188362 6.94358 1.74281 -2.66192 -0.0902172 0 0 0
ITEM: TIMESTEP
15
ITEM: NUMBER OF ATOMS
8
ITEM: BOX BOUNDS pp pp pp
-1.0000000000000000e+01 1.0000000000000000e+01
-1.0000000000000000e+01 1.0000000000000000e+01
-1.0000000000000000e+01 1.0000000000000000e+01
ITEM: ATOMS id type x y z vx vy vz ix iy iz
1 1 -0.0514284 0.121657 -0.0128641 -0.612916 1.54634 0.675957 0 0 0
2 1 -0.0282092 0.0497296 0.976277 -0.693702 0.83168 -0.694466 0 0 0
3 1 -0.105981 0.0533887 2.0146 -0.742809 0.485346 0.342739 0 0 0
4 1 0.0902079 -0.0327056 3.03772 0.499084 -0.314554 0.637635 0 0 0
5 1 -0.00411427 -0.0517498 4.01687 0.376902 -0.616295 -0.546693 0 0 0
6 1 0.0288424 0.0138468 5.02992 0.0781356 0.23077 -0.685499 0 0 0
7 1 -0.0639449 0.04745 5.99428 -0.62068 0.473604 0.343349 0 0 0
8 1 0.134627 -0.201617 6.9432 1.71598 -2.63689 -0.073022 0 0 0
ITEM: TIMESTEP
16
ITEM: NUMBER OF ATOMS
8
ITEM: BOX BOUNDS pp pp pp
-1.0000000000000000e+01 1.0000000000000000e+01
-1.0000000000000000e+01 1.0000000000000000e+01
-1.0000000000000000e+01 1.0000000000000000e+01
ITEM: ATOMS id type x y z vx vy vz ix iy iz
1 1 -0.0544706 0.129377 -0.00958367 -0.604327 1.54264 0.621575 0 0 0
2 1 -0.0318251 0.0539407 0.973415 -0.753183 0.851679 -0.424172 0 0 0
3 1 -0.109335 0.0556933 2.01634 -0.595891 0.435545 0.343804 0 0 0
4 1 0.092383 -0.0341981 3.04017 0.369848 -0.281376 0.32641 0 0 0
5 1 -0.00207524 -0.0547896 4.01454 0.437705 -0.59934 -0.377308 0 0 0
6 1 0.0290915 0.0150132 5.0259 0.0197174 0.236469 -0.899921 0 0 0
7 1 -0.0669023 0.0496941 5.99636 -0.557692 0.419718 0.483974 0 0 0
8 1 0.143133 -0.214731 6.94285 1.68382 -2.60534 -0.0743619 0 0 0
ITEM: TIMESTEP
17
ITEM: NUMBER OF ATOMS
8
ITEM: BOX BOUNDS pp pp pp
-1.0000000000000000e+01 1.0000000000000000e+01
-1.0000000000000000e+01 1.0000000000000000e+01
-1.0000000000000000e+01 1.0000000000000000e+01
ITEM: ATOMS id type x y z vx vy vz ix iy iz
1 1 -0.0574717 0.137084 -0.00664839 -0.596379 1.54087 0.542429 0 0 0
2 1 -0.035741 0.0582463 0.972035 -0.81323 0.869601 -0.11025 0 0 0
3 1 -0.11194 0.0577441 2.01804 -0.444996 0.384401 0.330913 0 0 0
4 1 0.0939063 -0.0355193 3.04098 0.239121 -0.246597 -0.007162 0 0 0
5 1 0.000262784 -0.0577432 4.01309 0.496621 -0.582047 -0.202436 0 0 0
6 1 0.0290395 0.0162115 5.02092 -0.0423657 0.243961 -1.06687 0 0 0
7 1 -0.0695218 0.0516472 5.99912 -0.485342 0.357291 0.6049 0 0 0
8 1 0.151466 -0.22767 6.94246 1.64657 -2.56748 -0.0915223 0 0 0
ITEM: TIMESTEP
18
ITEM: NUMBER OF ATOMS
8
ITEM: BOX BOUNDS pp pp pp
-1.0000000000000000e+01 1.0000000000000000e+01
-1.0000000000000000e+01 1.0000000000000000e+01
-1.0000000000000000e+01 1.0000000000000000e+01
ITEM: ATOMS id type x y z vx vy vz ix iy iz
1 1 -0.0604344 0.144786 -0.00415938 -0.588944 1.54045 0.448299 0 0 0
2 1 -0.0399574 0.0626367 0.972313 -0.872862 0.88579 0.229122 0 0 0
3 1 -0.113785 0.0595373 2.01965 -0.29354 0.333049 0.303617 0 0 0
4 1 0.0947742 -0.0366641 3.0401 0.108409 -0.211399 -0.341963 0 0 0
5 1 0.00289098 -0.0606101 4.01251 0.553966 -0.564791 -0.042791 0 0 0
6 1 0.0286678 0.0174528 5.01524 -0.108178 0.254023 -1.1711 0 0 0
7 1 -0.0717557 0.053267 6.00241 -0.403488 0.286578 0.696467 0 0 0
8 1 0.159599 -0.240405 6.94194 1.60464 -2.5237 -0.121646 0 0 0
ITEM: TIMESTEP
19
ITEM: NUMBER OF ATOMS
8
ITEM: BOX BOUNDS pp pp pp
-1.0000000000000000e+01 1.0000000000000000e+01
-1.0000000000000000e+01 1.0000000000000000e+01
-1.0000000000000000e+01 1.0000000000000000e+01
ITEM: ATOMS id type x y z vx vy vz ix iy iz
1 1 -0.0633611 0.152488 -0.0021654 -0.581882 1.54061 0.349961 0 0 0
2 1 -0.0444697 0.0671042 0.974327 -0.931071 0.900841 0.57381 0 0 0
3 1 -0.114875 0.0610746 2.02108 -0.145002 0.282624 0.262678 0 0 0
4 1 0.0949904 -0.0376333 3.03756 -0.0206973 -0.177063 -0.657474 0 0 0
5 1 0.00580245 -0.0633911 4.01267 0.610125 -0.547855 0.0832064 0 0 0
6 1 0.0279578 0.0187517 5.00921 -0.177608 0.267261 -1.20164 0 0 0
7 1 -0.0735567 0.054513 6.00608 -0.312383 0.208088 0.751459 0 0 0
8 1 0.167512 -0.252907 6.94124 1.55852 -2.47451 -0.162 0 0 0
ITEM: TIMESTEP
20
ITEM: NUMBER OF ATOMS
8
ITEM: BOX BOUNDS pp pp pp
-1.0000000000000000e+01 1.0000000000000000e+01
-1.0000000000000000e+01 1.0000000000000000e+01
-1.0000000000000000e+01 1.0000000000000000e+01
ITEM: ATOMS id type x y z vx vy vz ix iy iz
1 1 -0.0662532 0.160192 -0.000659771 -0.575089 1.54046 0.258416 0 0 0
2 1 -0.0492681 0.0716451 0.978051 -0.986871 0.915556 0.903029 0 0 0
3 1 -0.115235 0.0623635 2.02227 -0.00268425 0.234176 0.21003 0 0 0
4 1 0.0945672 -0.0384347 3.03352 -0.146533 -0.144887 -0.935218 0 0 0
5 1 0.00899222 -0.0660886 4.01334 0.665422 -0.531364 0.161107 0 0 0
6 1 0.0268918 0.0201254 5.00322 -0.25032 0.283995 -1.15293 0 0 0
7 1 -0.0748796 0.0553478 6.00993 -0.212684 0.122529 0.76574 0 0 0
8 1 0.175184 -0.265151 6.94032 1.50876 -2.42047 -0.21017 0 0 0
ITEM: TIMESTEP
21
ITEM: NUMBER OF ATOMS
8
ITEM: BOX BOUNDS pp pp pp
-1.0000000000000000e+01 1.0000000000000000e+01
-1.0000000000000000e+01 1.0000000000000000e+01
-1.0000000000000000e+01 1.0000000000000000e+01
ITEM: ATOMS id type x y z vx vy vz ix iy iz
1 1 -0.069112 0.167893 0.000418761 -0.56853 1.53906 0.184105 0 0 0
2 1 -0.0543384 0.0762598 0.983357 -1.03935 0.930876 1.19671 0 0 0
3 1 -0.114902 0.0634164 2.02318 0.130524 0.188592 0.148683 0 0 0
4 1 0.0935251 -0.0390822 3.02821 -0.267388 -0.116089 -1.15999 0 0 0
5 1 0.0124567 -0.0687048 4.01428 0.720008 -0.515236 0.181732 0 0 0
6 1 0.0254546 0.0215917 4.99768 -0.32572 0.304169 -1.02566 0 0 0
7 1 -0.0756835 0.0557383 6.01374 -0.105428 0.0307646 0.738604 0 0 0
8 1 0.182599 -0.277112 6.93914 1.45588 -2.36214 -0.26419 0 0 0
ITEM: TIMESTEP
22
ITEM: NUMBER OF ATOMS
8
ITEM: BOX BOUNDS pp pp pp
-1.0000000000000000e+01 1.0000000000000000e+01
-1.0000000000000000e+01 1.0000000000000000e+01
-1.0000000000000000e+01 1.0000000000000000e+01
ITEM: ATOMS id type x y z vx vy vz ix iy iz
1 1 -0.0719385 0.175583 0.00118128 -0.562258 1.53551 0.136151 0 0 0
2 1 -0.0596616 0.0809539 0.990018 -1.08772 0.94779 1.43685 0 0 0
3 1 -0.113929 0.0642494 2.02376 0.252325 0.14654 0.0824275 0 0 0
4 1 0.0918933 -0.0395956 3.02193 -0.381576 -0.0917213 -1.32078 0 0 0
5 1 0.0161923 -0.071241 4.01516 0.773774 -0.499138 0.141985 0 0 0
6 1 0.0236346 0.0231671 4.99296 -0.402943 0.327286 -0.826879 0 0 0
7 1 -0.0759339 0.0556555 6.01731 0.00801885 -0.0662503 0.672828 0 0 0
8 1 0.189743 -0.288772 6.93768 1.40038 -2.30001 -0.322578 0 0 0
ITEM: TIMESTEP
23
ITEM: NUMBER OF ATOMS
8
ITEM: BOX BOUNDS pp pp pp
-1.0000000000000000e+01 1.0000000000000000e+01
-1.0000000000000000e+01 1.0000000000000000e+01
-1.0000000000000000e+01 1.0000000000000000e+01
ITEM: ATOMS id type x y z vx vy vz ix iy iz
1 1 -0.0747346 0.183248 0.00178027 -0.556426 1.52904 0.121682 0 0 0
2 1 -0.0652156 0.0857377 0.997725 -1.13136 0.967239 1.60872 0 0 0
3 1 -0.112379 0.0648818 2.024 0.361145 0.108431 0.0154791 0 0 0
4 1 0.0897093 -0.0399994 3.015 -0.487516 -0.072597 -1.41131 0 0 0
5 1 0.0201944 -0.0736962 4.0157 0.826292 -0.482466 0.0450964 0 0 0
6 1 0.0214251 0.0248646 4.98941 -0.480846 0.352394 -0.569692 0 0 0
7 1 -0.0756033 0.0550758 6.02047 0.126045 -0.167516 0.574324 0 0 0
8 1 0.196603 -0.300112 6.93591 1.34267 -2.23452 -0.384301 0 0 0
ITEM: TIMESTEP
24
ITEM: NUMBER OF ATOMS
8
ITEM: BOX BOUNDS pp pp pp
-1.0000000000000000e+01 1.0000000000000000e+01
-1.0000000000000000e+01 1.0000000000000000e+01
-1.0000000000000000e+01 1.0000000000000000e+01
ITEM: ATOMS id type x y z vx vy vz ix iy iz
1 1 -0.0775028 0.190873 0.0023981 -0.551275 1.51912 0.145298 0 0 0
2 1 -0.0709752 0.0906262 1.00611 -1.16986 0.990026 1.70193 0 0 0
3 1 -0.110318 0.0653337 2.02392 0.456188 0.0744008 -0.0479259 0 0 0
4 1 0.0870182 -0.0403216 3.00781 -0.583839 -0.0592356 -1.43015 0 0 0
5 1 0.0244552 -0.0760656 4.01561 0.876795 -0.464346 -0.0997043 0 0 0
6 1 0.0188261 0.026691 4.98727 -0.558021 0.37811 -0.272333 0 0 0
7 1 -0.0746734 0.0539803 6.02306 0.246882 -0.272032 0.451555 0 0 0
8 1 0.20317 -0.311117 6.93383 1.28313 -2.16604 -0.448674 0 0 0
ITEM: TIMESTEP
25
ITEM: NUMBER OF ATOMS
8
ITEM: BOX BOUNDS pp pp pp
-1.0000000000000000e+01 1.0000000000000000e+01
-1.0000000000000000e+01 1.0000000000000000e+01
-1.0000000000000000e+01 1.0000000000000000e+01
ITEM: ATOMS id type x y z vx vy vz ix iy iz
1 1 -0.0802473 0.198439 0.00323324 -0.547105 1.50549 0.208687 0 0 0
2 1 -0.0769142 0.095638 1.01474 -1.20303 1.01672 1.71114 0 0 0
3 1 -0.107817 0.0656258 2.02352 0.537412 0.0443341 -0.103948 0 0 0
4 1 0.083871 -0.0405918 3.0007 -0.669465 -0.0518377 -1.38056 0 0 0
5 1 0.0289623 -0.0783396 4.0147 0.924181 -0.443683 -0.278068 0 0 0
6 1 0.0158449 0.0286457 4.98668 -0.632819 0.402714 0.0431913 0 0 0
7 1 -0.0731345 0.0523554 6.02498 0.368696 -0.378818 0.314768 0 0 0
8 1 0.209435 -0.321773 6.93143 1.22213 -2.09492 -0.515211 0 0 0
ITEM: TIMESTEP
26
ITEM: NUMBER OF ATOMS
8
ITEM: BOX BOUNDS pp pp pp
-1.0000000000000000e+01 1.0000000000000000e+01
-1.0000000000000000e+01 1.0000000000000000e+01
-1.0000000000000000e+01 1.0000000000000000e+01
ITEM: ATOMS id type x y z vx vy vz ix iy iz
1 1 -0.0829738 0.205928 0.00448498 -0.544243 1.48822 0.310463 0 0 0
2 1 -0.0830055 0.100793 1.02322 -1.23088 1.04757 1.63649 0 0 0
3 1 -0.104944 0.0657771 2.02288 0.605442 0.0178996 -0.149526 0 0 0
4 1 0.0803235 -0.0408399 2.99401 -0.743684 -0.0502823 -1.26988 0 0 0
5 1 0.033697 -0.0805024 4.01283 0.967057 -0.419229 -0.471898 0 0 0
6 1 0.0124979 0.0307182 4.9877 -0.703406 0.424275 0.352834 0 0 0
7 1 -0.0709864 0.0501921 6.02621 0.489677 -0.486926 0.174978 0 0 0
8 1 0.215391 -0.332066 6.92868 1.16004 -2.02153 -0.583455 0 0 0
ITEM: TIMESTEP
27
ITEM: NUMBER OF ATOMS
8
ITEM: BOX BOUNDS pp pp pp
-1.0000000000000000e+01 1.0000000000000000e+01
-1.0000000000000000e+01 1.0000000000000000e+01
-1.0000000000000000e+01 1.0000000000000000e+01
ITEM: ATOMS id type x y z vx vy vz ix iy iz
1 1 -0.0856897 0.213321 0.00633787 -0.542994 1.4677 0.446222 0 0 0
2 1 -0.089223 0.106114 1.03111 -1.25363 1.08249 1.48361 0 0 0
3 1 -0.101762 0.0658048 2.02203 0.661416 -0.00538552 -0.182689 0 0 0
4 1 0.0764341 -0.0410946 2.988 -0.80619 -0.054148 -1.10873 0 0 0
5 1 0.0386329 -0.0825319 4.00998 1.00381 -0.389702 -0.660983 0 0 0
6 1 0.00881087 0.0328884 4.99021 -0.767835 0.440835 0.632459 0 0 0
7 1 -0.0682378 0.0474862 6.02673 0.60812 -0.595435 0.0429044 0 0 0
8 1 0.221035 -0.341988 6.92559 1.0973 -1.94635 -0.652798 0 0 0
ITEM: TIMESTEP
28
ITEM: NUMBER OF ATOMS
8
ITEM: BOX BOUNDS pp pp pp
-1.0000000000000000e+01 1.0000000000000000e+01
-1.0000000000000000e+01 1.0000000000000000e+01
-1.0000000000000000e+01 1.0000000000000000e+01
ITEM: ATOMS id type x y z vx vy vz ix iy iz
1 1 -0.0884038 0.220605 0.00894719 -0.543606 1.44465 0.608744 0 0 0
2 1 -0.0955418 0.111618 1.03805 -1.27161 1.12097 1.26326 0 0 0
3 1 -0.0983296 0.0657232 2.02105 0.706792 -0.0260798 -0.20275 0 0 0
4 1 0.0722616 -0.0413814 2.98292 -0.857086 -0.0627651 -0.909836 0 0 0
5 1 0.0437351 -0.0843995 4.00622 1.03271 -0.353919 -0.824872 0 0 0
6 1 0.00481955 0.0351265 4.99402 -0.824163 0.450596 0.85985 0 0 0
7 1 -0.0649052 0.0442378 6.02663 0.722484 -0.703432 -0.0720718 0 0 0
8 1 0.226364 -0.35153 6.92215 1.03448 -1.87001 -0.722328 0 0 0
ITEM: TIMESTEP
29
ITEM: NUMBER OF ATOMS
8
ITEM: BOX BOUNDS pp pp pp
-1.0000000000000000e+01 1.0000000000000000e+01
-1.0000000000000000e+01 1.0000000000000000e+01
-1.0000000000000000e+01 1.0000000000000000e+01
ITEM: ATOMS id type x y z vx vy vz ix iy iz
1 1 -0.0911258 0.227768 0.0124253 -0.546234 1.42007 0.788439 0 0 0
2 1 -0.101939 0.117323 1.04374 -1.28525 1.16211 0.990665 0 0 0
3 1 -0.0946944 0.065544 2.02 0.743144 -0.0447365 -0.210369 0 0 0
4 1 0.0678633 -0.0417222 2.97891 -0.896843 -0.0752795 -0.686955 0 0 0
5 1 0.04896 -0.0860711 4.00173 1.05207 -0.310926 -0.944823 0 0 0
6 1 0.000569235 0.0373944 4.99881 -0.870583 0.452108 1.01658 0 0 0
7 1 -0.0610129 0.0404519 6.02601 0.831427 -0.809978 -0.16283 0 0 0
8 1 0.23138 -0.360688 6.91837 0.972262 -1.79336 -0.790707 0 0 0
ITEM: TIMESTEP
30
ITEM: NUMBER OF ATOMS
8
ITEM: BOX BOUNDS pp pp pp
-1.0000000000000000e+01 1.0000000000000000e+01
-1.0000000000000000e+01 1.0000000000000000e+01
-1.0000000000000000e+01 1.0000000000000000e+01
ITEM: ATOMS id type x y z vx vy vz ix iy iz
1 1 -0.0938661 0.234805 0.0168316 -0.550908 1.39518 0.974021 0 0 0
2 1 -0.108394 0.123239 1.04796 -1.29495 1.20463 0.684453 0 0 0
3 1 -0.0908981 0.0652759 2.01895 0.771969 -0.0618291 -0.207462 0 0 0
4 1 0.0632932 -0.0421342 2.97605 -0.926242 -0.0907241 -0.453768 0 0 0
5 1 0.0542559 -0.0875087 3.99677 1.06037 -0.260125 -1.00552 0 0 0
6 1 -0.00388628 0.0396476 5.00419 -0.905568 0.444421 1.08961 0 0 0
7 1 -0.056591 0.036138 6.02501 0.933827 -0.914078 -0.225228 0 0 0
8 1 0.236087 -0.369463 6.91425 0.911499 -1.71747 -0.856112 0 0 0
ITEM: TIMESTEP
31
ITEM: NUMBER OF ATOMS
8
ITEM: BOX BOUNDS pp pp pp
-1.0000000000000000e+01 1.0000000000000000e+01
-1.0000000000000000e+01 1.0000000000000000e+01
-1.0000000000000000e+01 1.0000000000000000e+01
ITEM: ATOMS id type x y z vx vy vz ix iy iz
1 1 -0.0966349 0.24172 0.0221655 -0.557522 1.37133 1.15323 0 0 0
2 1 -0.114889 0.12937 1.05059 -1.30107 1.24694 0.365393 0 0 0
3 1 -0.0869748 0.0649257 2.01793 0.794522 -0.077693 -0.196963 0 0 0
4 1 0.0586008 -0.0426295 2.97437 -0.946288 -0.108099 -0.222849 0 0 0
5 1 0.0595638 -0.0886723 3.99168 1.05642 -0.201361 -0.996474 0 0 0
6 1 -0.00848645 0.0418386 5.00971 -0.928003 0.427178 1.07244 0 0 0
7 1 -0.0516746 0.0313111 6.02376 1.02876 -1.01464 -0.258537 0 0 0
8 1 0.240495 -0.377863 6.90981 0.853177 -1.64365 -0.91624 0 0 0
ITEM: TIMESTEP
32
ITEM: NUMBER OF ATOMS
8
ITEM: BOX BOUNDS pp pp pp
-1.0000000000000000e+01 1.0000000000000000e+01
-1.0000000000000000e+01 1.0000000000000000e+01
-1.0000000000000000e+01 1.0000000000000000e+01
ITEM: ATOMS id type x y z vx vy vz ix iy iz
1 1 -0.0994413 0.248519 0.0283639 -0.565832 1.34992 1.31364 0 0 0
2 1 -0.121405 0.135709 1.05161 -1.30387 1.28721 0.0549432 0 0 0
3 1 -0.0829529 0.0644989 2.01698 0.811716 -0.0924922 -0.182463 0 0 0
4 1 0.0538303 -0.0432152 2.97382 -0.958098 -0.126447 -0.00485386 0 0 0
5 1 0.0648201 -0.0895223 3.98681 1.03949 -0.134971 -0.913049 0 0 0
6 1 -0.0131663 0.0439194 5.01491 -0.937275 0.400633 0.96571 0 0 0
7 1 -0.0463033 0.0259916 6.02242 1.11548 -1.11045 -0.265552 0 0 0
8 1 0.244619 -0.3859 6.90508 0.798389 -1.5734 -0.968381 0 0 0
ITEM: TIMESTEP
33
ITEM: NUMBER OF ATOMS
8
ITEM: BOX BOUNDS pp pp pp
-1.0000000000000000e+01 1.0000000000000000e+01
-1.0000000000000000e+01 1.0000000000000000e+01
-1.0000000000000000e+01 1.0000000000000000e+01
ITEM: ATOMS id type x y z vx vy vz ix iy iz
1 1 -0.102293 0.255219 0.035302 -0.575473 1.33233 1.44355 0 0 0
2 1 -0.127927 0.142242 1.05114 -1.30346 1.32347 -0.226244 0 0 0
3 1 -0.0788576 0.0640008 2.0161 0.824074 -0.106217 -0.167771 0 0 0
4 1 0.0490199 -0.043894 2.97432 -0.962801 -0.144909 0.192048 0 0 0
5 1 0.0699587 -0.0900221 3.98255 1.00936 -0.0617778 -0.75689 0 0 0
6 1 -0.0178592 0.0458449 5.01936 -0.933319 0.365603 0.777233 0 0 0
7 1 -0.0405198 0.0202065 6.02111 1.19335 -1.20018 -0.252349 0 0 0
8 1 0.248479 -0.393597 6.90012 0.748266 -1.50832 -1.00958 0 0 0
ITEM: TIMESTEP
34
ITEM: NUMBER OF ATOMS
8
ITEM: BOX BOUNDS pp pp pp
-1.0000000000000000e+01 1.0000000000000000e+01
-1.0000000000000000e+01 1.0000000000000000e+01
-1.0000000000000000e+01 1.0000000000000000e+01
ITEM: ATOMS id type x y z vx vy vz ix iy iz
1 1 -0.105196 0.261842 0.0427994 -0.58598 1.31976 1.53273 0 0 0
2 1 -0.13444 0.148943 1.04935 -1.29985 1.35381 -0.459763 0 0 0
3 1 -0.0747122 0.0634368 2.0153 0.831746 -0.11871 -0.156361 0 0 0
4 1 0.0442023 -0.0446643 2.97574 -0.961426 -0.162771 0.362444 0 0 0
5 1 0.0749137 -0.0901401 3.97924 0.966397 0.0169485 -0.535852 0 0 0
6 1 -0.0224995 0.0475754 5.02268 -0.916601 0.323361 0.52134 0 0 0
7 1 -0.0343698 0.0139898 6.0199 1.2618 -1.28235 -0.227705 0 0 0
8 1 0.252101 -0.400983 6.89499 0.703905 -1.45004 -1.03683 0 0 0
ITEM: TIMESTEP
35
ITEM: NUMBER OF ATOMS
8
ITEM: BOX BOUNDS pp pp pp
-1.0000000000000000e+01 1.0000000000000000e+01
-1.0000000000000000e+01 1.0000000000000000e+01
-1.0000000000000000e+01 1.0000000000000000e+01
ITEM: ATOMS id type x y z vx vy vz ix iy iz
1 1 -0.108153 0.268416 0.0506292 -0.596834 1.31322 1.57317 0 0 0
2 1 -0.140926 0.15578 1.04654 -1.29295 1.37647 -0.630729 0 0 0
3 1 -0.0705401 0.0628137 2.01454 0.834578 -0.129727 -0.15087 0 0 0
4 1 0.0394056 -0.0455217 2.97794 -0.954821 -0.179476 0.503675 0 0 0
5 1 0.0796226 -0.0898526 3.97719 0.911504 0.0995737 -0.263359 0 0 0
6 1 -0.0270252 0.0490785 5.02458 -0.888056 0.275487 0.217707 0 0 0
7 1 -0.0279018 0.007383 6.01883 1.32031 -1.35548 -0.202219 0 0 0
8 1 0.255518 -0.408097 6.88976 0.666272 -1.40007 -1.04737 0 0 0
ITEM: TIMESTEP
36
ITEM: NUMBER OF ATOMS
8
ITEM: BOX BOUNDS pp pp pp
-1.0000000000000000e+01 1.0000000000000000e+01
-1.0000000000000000e+01 1.0000000000000000e+01
-1.0000000000000000e+01 1.0000000000000000e+01
ITEM: ATOMS id type x y z vx vy vz ix iy iz
1 1 -0.111164 0.274974 0.058531 -0.607511 1.31341 1.55966 0 0 0
2 1 -0.147369 0.162708 1.04304 -1.28263 1.39004 -0.728799 0 0 0
3 1 -0.0663664 0.0621395 2.01379 0.832213 -0.139004 -0.152723 0 0 0
4 1 0.0346541 -0.0464591 2.98078 -0.943585 -0.194614 0.615567 0 0 0
5 1 0.0840287 -0.0891444 3.97661 0.846048 0.184198 0.0427037 0 0 0
6 1 -0.0313801 0.0503303 5.02486 -0.848993 0.223715 -0.110218 0 0 0
7 1 -0.0211668 0.000435022 6.01787 1.36836 -1.41812 -0.187227 0 0 0
8 1 0.258764 -0.414984 6.88451 0.636102 -1.35963 -1.03896 0 0 0
ITEM: TIMESTEP
37
ITEM: NUMBER OF ATOMS
8
ITEM: BOX BOUNDS pp pp pp
-1.0000000000000000e+01 1.0000000000000000e+01
-1.0000000000000000e+01 1.0000000000000000e+01
-1.0000000000000000e+01 1.0000000000000000e+01
ITEM: ATOMS id type x y z vx vy vz ix iy iz
1 1 -0.114228 0.28155 0.0662258 -0.617535 1.32067 1.49015 0 0 0
2 1 -0.153752 0.16968 1.03925 -1.26874 1.39356 -0.748855 0 0 0
3 1 -0.062218 0.0614236 2.01301 0.824213 -0.146338 -0.161793 0 0 0
4 1 0.0299698 -0.0474678 2.9841 -0.928039 -0.2079 0.699966 0 0 0
5 1 0.0880831 -0.0880106 3.97761 0.771768 0.268773 0.361471 0 0 0
6 1 -0.0355151 0.0513157 5.02348 -0.800992 0.169789 -0.437189 0 0 0
7 1 -0.0142182 -0.00679815 6.01696 1.40551 -1.469 -0.193586 0 0 0
8 1 0.261879 -0.421693 6.87937 0.613818 -1.32955 -1.01016 0 0 0
ITEM: TIMESTEP
38
ITEM: NUMBER OF ATOMS
8
ITEM: BOX BOUNDS pp pp pp
-1.0000000000000000e+01 1.0000000000000000e+01
-1.0000000000000000e+01 1.0000000000000000e+01
-1.0000000000000000e+01 1.0000000000000000e+01
ITEM: ATOMS id type x y z vx vy vz ix iy iz
1 1 -0.11734 0.288181 0.0734325 -0.626546 1.33497 1.36594 0 0 0